integrator           = md
dt                   = 0.002
nsteps               = 50000000

nstxout-compressed   = 250000
nstxout              = 0
nstvout              = 0
nstfout              = 0
nstcalcenergy        = 100
nstenergy            = 10000
nstlog               = 10000

cutoff-scheme        = Verlet
nstlist              = 20
rlist                = 1.2
coulombtype          = PME
rcoulomb             = 1.2
vdwtype              = Cut-off
vdw-modifier         = Force-switch
rvdw-switch          = 1.0
rvdw                 = 1.2

tcoupl               = v-rescale
tc-grps              = SOLU SOLV
tau-t                = 1.0 1.0
ref-t                = 310 310

pcoupl               = C-rescale
pcoupltype           = isotropic
tau-p                = 5.0
compressibility      = 4.5e-5
ref-p                = 1.0

constraints          = h-bonds
constraint-algorithm = LINCS
continuation         = yes
nstcomm              = 100
comm-mode            = linear
comm-grps            = SOLU SOLV
